<?xml version="1.0"?>
<VTKFile type="UnstructuredGrid"  version="0.1"  >
<UnstructuredGrid>
<Piece  NumberOfPoints="1089" NumberOfCells="2048">
<Points>
<DataArray  type="Float64"  NumberOfComponents="3"  format="ascii">0 0 0  0.03125 0 0  0.0625 0 0  0.09375 0 0  0.125 0 0  0.15625 0 0  0.1875 0 0  0.21875 0 0  0.25 0 0  0.28125 0 0  0.3125 0 0  0.34375 0 0  0.375 0 0  0.40625 0 0  0.4375 0 0  0.46875 0 0  0.5 0 0  0.53125 0 0  0.5625 0 0  0.59375 0 0  0.625 0 0  0.65625 0 0  0.6875 0 0  0.71875 0 0  0.75 0 0  0.78125 0 0  0.8125 0 0  0.84375 0 0  0.875 0 0  0.90625 0 0  0.9375 0 0  0.96875 0 0  1 0 0  0 0.03125 0  0.03125 0.03125 0  0.0625 0.03125 0  0.09375 0.03125 0  0.125 0.03125 0  0.15625 0.03125 0  0.1875 0.03125 0  0.21875 0.03125 0  0.25 0.03125 0  0.28125 0.03125 0  0.3125 0.03125 0  0.34375 0.03125 0  0.375 0.03125 0  0.40625 0.03125 0  0.4375 0.03125 0  0.46875 0.03125 0  0.5 0.03125 0  0.53125 0.03125 0  0.5625 0.03125 0  0.59375 0.03125 0  0.625 0.03125 0  0.65625 0.03125 0  0.6875 0.03125 0  0.71875 0.03125 0  0.75 0.03125 0  0.78125 0.03125 0  0.8125 0.03125 0  0.84375 0.03125 0  0.875 0.03125 0  0.90625 0.03125 0  0.9375 0.03125 0  0.96875 0.03125 0  1 0.03125 0  0 0.0625 0  0.03125 0.0625 0  0.0625 0.0625 0  0.09375 0.0625 0  0.125 0.0625 0  0.15625 0.0625 0  0.1875 0.0625 0  0.21875 0.0625 0  0.25 0.0625 0  0.28125 0.0625 0  0.3125 0.0625 0  0.34375 0.0625 0  0.375 0.0625 0  0.40625 0.0625 0  0.4375 0.0625 0  0.46875 0.0625 0  0.5 0.0625 0  0.53125 0.0625 0  0.5625 0.0625 0  0.59375 0.0625 0  0.625 0.0625 0  0.65625 0.0625 0  0.6875 0.0625 0  0.71875 0.0625 0  0.75 0.0625 0  0.78125 0.0625 0  0.8125 0.0625 0  0.84375 0.0625 0  0.875 0.0625 0  0.90625 0.0625 0  0.9375 0.0625 0  0.96875 0.0625 0  1 0.0625 0  0 0.09375 0  0.03125 0.09375 0  0.0625 0.09375 0  0.09375 0.09375 0  0.125 0.09375 0  0.15625 0.09375 0  0.1875 0.09375 0  0.21875 0.09375 0  0.25 0.09375 0  0.28125 0.09375 0  0.3125 0.09375 0  0.34375 0.09375 0  0.375 0.09375 0  0.40625 0.09375 0  0.4375 0.09375 0  0.46875 0.09375 0  0.5 0.09375 0  0.53125 0.09375 0  0.5625 0.09375 0  0.59375 0.09375 0  0.625 0.09375 0  0.65625 0.09375 0  0.6875 0.09375 0  0.71875 0.09375 0  0.75 0.09375 0  0.78125 0.09375 0  0.8125 0.09375 0  0.84375 0.09375 0  0.875 0.09375 0  0.90625 0.09375 0  0.9375 0.09375 0  0.96875 0.09375 0  1 0.09375 0  0 0.125 0  0.03125 0.125 0  0.0625 0.125 0  0.09375 0.125 0  0.125 0.125 0  0.15625 0.125 0  0.1875 0.125 0  0.21875 0.125 0  0.25 0.125 0  0.28125 0.125 0  0.3125 0.125 0  0.34375 0.125 0  0.375 0.125 0  0.40625 0.125 0  0.4375 0.125 0  0.46875 0.125 0  0.5 0.125 0  0.53125 0.125 0  0.5625 0.125 0  0.59375 0.125 0  0.625 0.125 0  0.65625 0.125 0  0.6875 0.125 0  0.71875 0.125 0  0.75 0.125 0  0.78125 0.125 0  0.8125 0.125 0  0.84375 0.125 0  0.875 0.125 0  0.90625 0.125 0  0.9375 0.125 0  0.96875 0.125 0  1 0.125 0  0 0.15625 0  0.03125 0.15625 0  0.0625 0.15625 0  0.09375 0.15625 0  0.125 0.15625 0  0.15625 0.15625 0  0.1875 0.15625 0  0.21875 0.15625 0  0.25 0.15625 0  0.28125 0.15625 0  0.3125 0.15625 0  0.34375 0.15625 0  0.375 0.15625 0  0.40625 0.15625 0  0.4375 0.15625 0  0.46875 0.15625 0  0.5 0.15625 0  0.53125 0.15625 0  0.5625 0.15625 0  0.59375 0.15625 0  0.625 0.15625 0  0.65625 0.15625 0  0.6875 0.15625 0  0.71875 0.15625 0  0.75 0.15625 0  0.78125 0.15625 0  0.8125 0.15625 0  0.84375 0.15625 0  0.875 0.15625 0  0.90625 0.15625 0  0.9375 0.15625 0  0.96875 0.15625 0  1 0.15625 0  0 0.1875 0  0.03125 0.1875 0  0.0625 0.1875 0  0.09375 0.1875 0  0.125 0.1875 0  0.15625 0.1875 0  0.1875 0.1875 0  0.21875 0.1875 0  0.25 0.1875 0  0.28125 0.1875 0  0.3125 0.1875 0  0.34375 0.1875 0  0.375 0.1875 0  0.40625 0.1875 0  0.4375 0.1875 0  0.46875 0.1875 0  0.5 0.1875 0  0.53125 0.1875 0  0.5625 0.1875 0  0.59375 0.1875 0  0.625 0.1875 0  0.65625 0.1875 0  0.6875 0.1875 0  0.71875 0.1875 0  0.75 0.1875 0  0.78125 0.1875 0  0.8125 0.1875 0  0.84375 0.1875 0  0.875 0.1875 0  0.90625 0.1875 0  0.9375 0.1875 0  0.96875 0.1875 0  1 0.1875 0  0 0.21875 0  0.03125 0.21875 0  0.0625 0.21875 0  0.09375 0.21875 0  0.125 0.21875 0  0.15625 0.21875 0  0.1875 0.21875 0  0.21875 0.21875 0  0.25 0.21875 0  0.28125 0.21875 0  0.3125 0.21875 0  0.34375 0.21875 0  0.375 0.21875 0  0.40625 0.21875 0  0.4375 0.21875 0  0.46875 0.21875 0  0.5 0.21875 0  0.53125 0.21875 0  0.5625 0.21875 0  0.59375 0.21875 0  0.625 0.21875 0  0.65625 0.21875 0  0.6875 0.21875 0  0.71875 0.21875 0  0.75 0.21875 0  0.78125 0.21875 0  0.8125 0.21875 0  0.84375 0.21875 0  0.875 0.21875 0  0.90625 0.21875 0  0.9375 0.21875 0  0.96875 0.21875 0  1 0.21875 0  0 0.25 0  0.03125 0.25 0  0.0625 0.25 0  0.09375 0.25 0  0.125 0.25 0  0.15625 0.25 0  0.1875 0.25 0  0.21875 0.25 0  0.25 0.25 0  0.28125 0.25 0  0.3125 0.25 0  0.34375 0.25 0  0.375 0.25 0  0.40625 0.25 0  0.4375 0.25 0  0.46875 0.25 0  0.5 0.25 0  0.53125 0.25 0  0.5625 0.25 0  0.59375 0.25 0  0.625 0.25 0  0.65625 0.25 0  0.6875 0.25 0  0.71875 0.25 0  0.75 0.25 0  0.78125 0.25 0  0.8125 0.25 0  0.84375 0.25 0  0.875 0.25 0  0.90625 0.25 0  0.9375 0.25 0  0.96875 0.25 0  1 0.25 0  0 0.28125 0  0.03125 0.28125 0  0.0625 0.28125 0  0.09375 0.28125 0  0.125 0.28125 0  0.15625 0.28125 0  0.1875 0.28125 0  0.21875 0.28125 0  0.25 0.28125 0  0.28125 0.28125 0  0.3125 0.28125 0  0.34375 0.28125 0  0.375 0.28125 0  0.40625 0.28125 0  0.4375 0.28125 0  0.46875 0.28125 0  0.5 0.28125 0  0.53125 0.28125 0  0.5625 0.28125 0  0.59375 0.28125 0  0.625 0.28125 0  0.65625 0.28125 0  0.6875 0.28125 0  0.71875 0.28125 0  0.75 0.28125 0  0.78125 0.28125 0  0.8125 0.28125 0  0.84375 0.28125 0  0.875 0.28125 0  0.90625 0.28125 0  0.9375 0.28125 0  0.96875 0.28125 0  1 0.28125 0  0 0.3125 0  0.03125 0.3125 0  0.0625 0.3125 0  0.09375 0.3125 0  0.125 0.3125 0  0.15625 0.3125 0  0.1875 0.3125 0  0.21875 0.3125 0  0.25 0.3125 0  0.28125 0.3125 0  0.3125 0.3125 0  0.34375 0.3125 0  0.375 0.3125 0  0.40625 0.3125 0  0.4375 0.3125 0  0.46875 0.3125 0  0.5 0.3125 0  0.53125 0.3125 0  0.5625 0.3125 0  0.59375 0.3125 0  0.625 0.3125 0  0.65625 0.3125 0  0.6875 0.3125 0  0.71875 0.3125 0  0.75 0.3125 0  0.78125 0.3125 0  0.8125 0.3125 0  0.84375 0.3125 0  0.875 0.3125 0  0.90625 0.3125 0  0.9375 0.3125 0  0.96875 0.3125 0  1 0.3125 0  0 0.34375 0  0.03125 0.34375 0  0.0625 0.34375 0  0.09375 0.34375 0  0.125 0.34375 0  0.15625 0.34375 0  0.1875 0.34375 0  0.21875 0.34375 0  0.25 0.34375 0  0.28125 0.34375 0  0.3125 0.34375 0  0.34375 0.34375 0  0.375 0.34375 0  0.40625 0.34375 0  0.4375 0.34375 0  0.46875 0.34375 0  0.5 0.34375 0  0.53125 0.34375 0  0.5625 0.34375 0  0.59375 0.34375 0  0.625 0.34375 0  0.65625 0.34375 0  0.6875 0.34375 0  0.71875 0.34375 0  0.75 0.34375 0  0.78125 0.34375 0  0.8125 0.34375 0  0.84375 0.34375 0  0.875 0.34375 0  0.90625 0.34375 0  0.9375 0.34375 0  0.96875 0.34375 0  1 0.34375 0  0 0.375 0  0.03125 0.375 0  0.0625 0.375 0  0.09375 0.375 0  0.125 0.375 0  0.15625 0.375 0  0.1875 0.375 0  0.21875 0.375 0  0.25 0.375 0  0.28125 0.375 0  0.3125 0.375 0  0.34375 0.375 0  0.375 0.375 0  0.40625 0.375 0  0.4375 0.375 0  0.46875 0.375 0  0.5 0.375 0  0.53125 0.375 0  0.5625 0.375 0  0.59375 0.375 0  0.625 0.375 0  0.65625 0.375 0  0.6875 0.375 0  0.71875 0.375 0  0.75 0.375 0  0.78125 0.375 0  0.8125 0.375 0  0.84375 0.375 0  0.875 0.375 0  0.90625 0.375 0  0.9375 0.375 0  0.96875 0.375 0  1 0.375 0  0 0.40625 0  0.03125 0.40625 0  0.0625 0.40625 0  0.09375 0.40625 0  0.125 0.40625 0  0.15625 0.40625 0  0.1875 0.40625 0  0.21875 0.40625 0  0.25 0.40625 0  0.28125 0.40625 0  0.3125 0.40625 0  0.34375 0.40625 0  0.375 0.40625 0  0.40625 0.40625 0  0.4375 0.40625 0  0.46875 0.40625 0  0.5 0.40625 0  0.53125 0.40625 0  0.5625 0.40625 0  0.59375 0.40625 0  0.625 0.40625 0  0.65625 0.40625 0  0.6875 0.40625 0  0.71875 0.40625 0  0.75 0.40625 0  0.78125 0.40625 0  0.8125 0.40625 0  0.84375 0.40625 0  0.875 0.40625 0  0.90625 0.40625 0  0.9375 0.40625 0  0.96875 0.40625 0  1 0.40625 0  0 0.4375 0  0.03125 0.4375 0  0.0625 0.4375 0  0.09375 0.4375 0  0.125 0.4375 0  0.15625 0.4375 0  0.1875 0.4375 0  0.21875 0.4375 0  0.25 0.4375 0  0.28125 0.4375 0  0.3125 0.4375 0  0.34375 0.4375 0  0.375 0.4375 0  0.40625 0.4375 0  0.4375 0.4375 0  0.46875 0.4375 0  0.5 0.4375 0  0.53125 0.4375 0  0.5625 0.4375 0  0.59375 0.4375 0  0.625 0.4375 0  0.65625 0.4375 0  0.6875 0.4375 0  0.71875 0.4375 0  0.75 0.4375 0  0.78125 0.4375 0  0.8125 0.4375 0  0.84375 0.4375 0  0.875 0.4375 0  0.90625 0.4375 0  0.9375 0.4375 0  0.96875 0.4375 0  1 0.4375 0  0 0.46875 0  0.03125 0.46875 0  0.0625 0.46875 0  0.09375 0.46875 0  0.125 0.46875 0  0.15625 0.46875 0  0.1875 0.46875 0  0.21875 0.46875 0  0.25 0.46875 0  0.28125 0.46875 0  0.3125 0.46875 0  0.34375 0.46875 0  0.375 0.46875 0  0.40625 0.46875 0  0.4375 0.46875 0  0.46875 0.46875 0  0.5 0.46875 0  0.53125 0.46875 0  0.5625 0.46875 0  0.59375 0.46875 0  0.625 0.46875 0  0.65625 0.46875 0  0.6875 0.46875 0  0.71875 0.46875 0  0.75 0.46875 0  0.78125 0.46875 0  0.8125 0.46875 0  0.84375 0.46875 0  0.875 0.46875 0  0.90625 0.46875 0  0.9375 0.46875 0  0.96875 0.46875 0  1 0.46875 0  0 0.5 0  0.03125 0.5 0  0.0625 0.5 0  0.09375 0.5 0  0.125 0.5 0  0.15625 0.5 0  0.1875 0.5 0  0.21875 0.5 0  0.25 0.5 0  0.28125 0.5 0  0.3125 0.5 0  0.34375 0.5 0  0.375 0.5 0  0.40625 0.5 0  0.4375 0.5 0  0.46875 0.5 0  0.5 0.5 0  0.53125 0.5 0  0.5625 0.5 0  0.59375 0.5 0  0.625 0.5 0  0.65625 0.5 0  0.6875 0.5 0  0.71875 0.5 0  0.75 0.5 0  0.78125 0.5 0  0.8125 0.5 0  0.84375 0.5 0  0.875 0.5 0  0.90625 0.5 0  0.9375 0.5 0  0.96875 0.5 0  1 0.5 0  0 0.53125 0  0.03125 0.53125 0  0.0625 0.53125 0  0.09375 0.53125 0  0.125 0.53125 0  0.15625 0.53125 0  0.1875 0.53125 0  0.21875 0.53125 0  0.25 0.53125 0  0.28125 0.53125 0  0.3125 0.53125 0  0.34375 0.53125 0  0.375 0.53125 0  0.40625 0.53125 0  0.4375 0.53125 0  0.46875 0.53125 0  0.5 0.53125 0  0.53125 0.53125 0  0.5625 0.53125 0  0.59375 0.53125 0  0.625 0.53125 0  0.65625 0.53125 0  0.6875 0.53125 0  0.71875 0.53125 0  0.75 0.53125 0  0.78125 0.531
[...]
<PointData  Scalars="u"> 
<DataArray  type="Float64"  Name="u"  format="ascii">1.1073184152677124e-01  1.1062059744158560e-01  1.1036337863106163e-01  1.0974806046686389e-01  1.0859809873880991e-01  1.0676348166644023e-01  1.0412248792795961e-01  1.0058518481433243e-01  9.6096468680161473e-02  9.0638007603792925e-02  8.4228860473590128e-02  7.6924698013657727e-02  6.8815635926255544e-02  6.0022754622960785e-02  5.0693434913199026e-02  4.0995686512015309e-02  3.1111685907916881e-02  2.1230771015426243e-02  1.1542161166899304e-02  2.2276816613896314e-03  -6.5452280867845831e-03  -1.4629954763860932e-02  -2.1906353154433560e-02  -2.8285374513857875e-02  -3.3712505834505496e-02  -3.8169892212955525e-02  -4.1677069555804240e-02  -4.4290299224925125e-02  -4.6100580886968959e-02  -4.7230571059902401e-02  -4.7831049019848033e-02  -4.8079129277715231e-02  -4.8187287651293050e-02  1.1014910556579327e-01  1.1009821069964716e-01  1.0985694614637476e-01  1.0924749053485586e-01  1.0810099060200648e-01  1.0626930495234593e-01  1.0363118937516769e-01  1.0009680836165874e-01  9.5611033442795687e-02  9.0155462367267181e-02  8.3749066238267195e-02  7.6447423791906610e-02  6.8340562474205627e-02  5.9549483751973484e-02  5.0221503027643652e-02  4.0524581366316620e-02  3.0640865688930180e-02  2.0759684889587439e-02  1.1070270448449862e-02  1.7544807881934449e-03  -7.0201915218368232e-03  -1.5107061568427567e-02  -2.2385896138107101e-02  -2.8767544278765263e-02  -3.4197378305604285e-02  -3.8657416175777878e-02  -4.2167049200945002e-02  -4.4782356901442222e-02  -4.6594051279992540e-02  -4.7724144800640050e-02  -4.8321409348085508e-02  -4.8555166681168466e-02  -4.8603526669270862e-02  1.0865918455448835e-01  1.0862523248361208e-01  1.0839572051768498e-01  1.0779322732656213e-01  1.0665129350359751e-01  1.0482311327367433e-01  1.0218804530869421e-01  9.8656498778491475e-02  9.4173423135706882e-02  8.8720415148365234e-02  8.2316407370292638e-02  7.5016923549400788e-02  6.6911931748270148e-02  5.8122377285467625e-02  4.8795527876836081e-02  3.9099309075454398e-02  2.9215847073975929e-02  1.9334466530918710e-02  9.6444121155209329e-03  3.2757312653963668e-04  -8.4485095777595606e-03  -1.6537085993658045e-02  -2.3817841636637506e-02  -3.0201528157491796e-02  -3.5633402742827780e-02  -4.0095344983606729e-02  -4.3606570256591135e-02  -4.6222910043658874e-02  -4.8034674888349900e-02  -4.9163136952811236e-02  -4.9755619724283828e-02  -4.9978967304227032e-02  -5.0010837916682038e-02  1.0628936562882710e-01  1.0626206908724040e-01  1.0603970799777701e-01  1.0544288323832948e-01  1.0430528421956581e-01  1.0248058052380005e-01  9.9848484943266633e-02  9.6319607357893869e-02  9.1838990032622192e-02  8.6388256770182040e-02  7.9986329680960574e-02  7.2688702480874209e-02  6.4585305091425280e-02  5.5797044253010041e-02  4.6471154002364776e-02  3.6775534909301515e-02  2.6892299568512069e-02  1.7010772255801252e-02  7.3202116084126892e-03  -1.9974641721922475e-03  -1.0774670193678483e-02  -1.8864597249724707e-02  -2.6146856257293075e-02  -3.2532107885901135e-02  -3.7965499248232094e-02  -4.2428774673394613e-02  -4.5940976798153954e-02  -4.8557704186169365e-02  -5.0368937548532416e-02  -5.1495481750367132e-02  -5.2084092039774363e-02  -5.2301394683563054e-02  -5.2326983197071131e-02  1.0312149345963387e-01  1.0309789122127511e-01  1.0288005708935641e-01  1.0228745795554939e-01  1.0115348707787200e-01  9.9331876910350947e-02  9.6702477776418813e-02  9.3176010785100141e-02  8.8697583784070111e-02  8.3248847326685124e-02  7.6848723296233823e-02  6.9552688853367725e-02  6.1450649348882572e-02  5.2663485178918848e-02  4.3338406911814745e-02  3.3643297973404492e-02  2.3760262660798347e-02  1.3878627584489413e-02  4.1876655446751298e-03  -5.1306785245216688e-03  -1.3908779988715749e-02  -2.1999776554269226e-02  -2.9283212198991812e-02  -3.5669665736834950e-02  -4.1104185356511481e-02  -4.5568395519833063e-02  -4.9081192018543565e-02  -5.1697992354332194e-02  -5.3508559582921576e-02  -5.4633467754829364e-02  -5.5219332690729116e-02  -5.5433019924051856e-02  -5.5455221926113428e-02  9.9273661391432441e-02  9.9252536445077755e-02  9.9037739338005734e-02  9.8448219176454355e-02  9.7317106905035991e-02  9.5498069728648785e-02  9.2870979874376258e-02  8.9346599543600955e-02  8.4870068122915476e-02  7.9423050777837817e-02  7.3024468731340594e-02  6.5729787752816196e-02  5.7628895950832655e-02  4.8842654961782757e-02  3.9518258647752429e-02  2.9823578607911364e-02  1.9940714356294530e-02  1.0058996359489121e-02  3.6771103415272790e-04  -8.9511725626543123e-03  -1.7729994682393616e-02  -2.5821846565966308e-02  -3.3106213975974533e-02  -3.9493605148504397e-02  -4.4928984373174101e-02  -4.9393877673451651e-02  -5.2907067130259583e-02  -5.5523843416015926e-02  -5.7333840673992345e-02  -5.8457534076100132e-02  -5.9041541520428245e-02  -5.9252943912995626e-02  -5.9272922604538883e-02  9.4891900811765365e-02  9.4872482106606371e-02  9.4659749877116520e-02  9.4072424347841507e-02  9.2943466396983615e-02  9.1126459770968338e-02  8.8501250937055756e-02  8.4978601794395717e-02  8.0503656597996048e-02  7.5058081332793930e-02  6.8660791586693776e-02  6.1367242021860162e-02  5.3267306499663825e-02  4.4481831910242339e-02  3.5157999345482929e-02  2.5463671731202505e-02  1.5580945717286909e-02  5.6991560266265087e-03  -3.9923986002658902e-03  -1.3311728077854693e-02  -2.2091142531437589e-02  -3.0183693756749050e-02  -3.7468818638039629e-02  -4.3856967069802563e-02  -4.9293035685456718e-02  -5.3758474232308402e-02  -5.7271982060631214e-02  -5.9888766211000789e-02  -6.1698388540131224e-02  -6.2821286355150552e-02  -6.3404108797254957e-02  -6.3614068039356819e-02  -6.3632550421260592e-02  9.0143486924150196e-02  9.0125122964841264e-02  8.9913712347361410e-02  8.9327867176793668e-02  8.8200442719270244e-02  8.6384949962688445e-02  8.3761194192068816e-02  8.0239915896680725e-02  7.5766246749088995e-02  7.0321842166398696e-02  6.3925606144366487e-02  5.6632980189770116e-02  4.8533824270901742e-02  3.9748972070021919e-02  3.0425593724083363e-02  2.0731544926504246e-02  1.0848920070698551e-02  9.6705758896945026e-04  -8.7247333839881036e-03  -1.8044445221694131e-02  -2.6824363132585637e-02  -3.4917506601706977e-02  -4.2203273001869532e-02  -4.8592065973611209e-02  -5.4028730042402745e-02  -5.8494658676095712e-02  -6.2008493921193245e-02  -6.4625390137379085e-02  -6.6434870444213881e-02  -6.7557360611749009e-02  -6.8139539274084240e-02  -6.8348692066942537e-02  -6.8366293652174906e-02  8.5210140205107490e-02  8.5192215194648868e-02  8.4981491043069554e-02  8.4396517569710033e-02  8.3270078536823333e-02  8.1455624150976097e-02  7.8832914896462866e-02  7.5312659689946437e-02  7.0839966983516814e-02  6.5396473278122411e-02  5.9001065559215887e-02  5.1709169304481786e-02  4.3610629520359150e-02  3.4826266651868783e-02  2.5503240226699763e-02  1.5809398893434395e-02  5.9268344067345199e-03  -3.9551123574591571e-03  -1.3647124261935401e-02  -2.2967179855954797e-02  -3.1747544658310062e-02  -3.9841212784751549e-02  -4.7127551005331059e-02  -5.3516927905745179e-02  -5.8954149769281830e-02  -6.3420570633853715e-02  -6.6934795021877699e-02  -6.9551946242236345e-02  -7.1361528970402446e-02  -7.2483969937154058e-02  -7.3065972579363994e-02  -7.3274867302154212e-02  -7.3292174590106632e-02  8.0280890524883033e-02  8.0262808922278120e-02  8.0052198376232397e-02  7.9467559442461186e-02  7.8341618546844016e-02  7.6527771833758473e-02  7.3905734120771699e-02  7.0386177465201510e-02  6.5914180508444817e-02  6.0471354885434536e-02  5.4076566077804450e-02  4.6785220574410799e-02  3.8687146693691388e-02  2.9903150710701907e-02  2.0580380953086969e-02  1.0886678370499983e-02  1.0041310202642878e-03  -8.8779195203061087e-03  -1.8570150766014010e-02  -2.7890531202187211e-02  -3.6671311699455381e-02  -4.4765467499486879e-02  -5.2052342896869594e-02  -5.8442281356832833e-02  -6.3880062786661085e-02  -6.8347015550235771e-02  -7.1861721858139105e-02  -7.4479289465114951e-02  -7.6289218097512587e-02  -7.7411943507408432e-02  -7.7994193119737917e-02  -7.8203332328904598e-02  -7.8220917121844216e-02  7.5544738586421162e-02  7.5525931593348195e-02  7.5314911056094294e-02  7.4730126840664976e-02  7.3604250857139258e-02  7.1790626785569966e-02  6.9168922498874658e-02  6.5649769667018312e-02  6.1178212634460931e-02  5.5735833802741677e-02  4.9341473503367338e-02  4.2050516490793437e-02  3.3952772452099884e-02  2.5169032107767185e-02  1.5846431463419793e-02  6.1528026152142803e-03  -3.7297715325721572e-03  -1.3611950691417371e-02  -2.3304409752002705e-02  -3.2625110764333193e-02  -4.1406294634045354e-02  -4.9500923599400691e-02  -5.6788326650440160e-02  -6.3178830676832512e-02  -6.8617199118530273e-02  -7.3084745761066203e-02  -7.6600042319940567e-02  -7.9218192645101437e-02  -8.1028701643332535e-02  -8.2152021152237700e-02  -8.2734905735650080e-02  -8.2944756485283849e-02  -8.2963168489415609e-02  7.1183351284490270e-02  7.1163290849625624e-02  7.0951387414131484e-02  7.0366032611598323e-02  6.9239840779310724e-02  6.7426101262661811e-02  6.4804432674375842e-02  6.1285423235937796e-02  5.6814079535499801e-02  5.1371951354105619e-02  4.4977850894366983e-02  3.7687138743450019e-02  2.9589604039980212e-02  2.0806020409480291e-02  1.1483510177610732e-02  1.7898952005359476e-03  -8.0927483900242909e-03  -1.7975083633163882e-02  -2.7667785417595177e-02  -3.6988812705079581e-02  -4.5770400628173738e-02  -5.3865503555133601e-02  -6.1153441312243956e-02  -6.7544531379277378e-02  -7.2983528856771174e-02  -7.7451741853308789e-02  -8.0967740899041629e-02  -8.3586635093520961e-02  -8.5397942833659965e-02  -8.6522138958541800e-02  -8.7106010816689769e-02  -8.7317001059540475e-02  -8.7336753146984511e-02  6.7364054607498419e-02  6.7342269542925881e-02  6.7129068534574565e-02  6.6542775412286134e-02  6.5415941305043038e-02  6.3601797516911862e-02  6.0979910347633101e-02  5.7460821628625786e-02  5.2989497288722633e-02  4.7547451745582531e-02  4.1153466624148996e-02  3.3862876254180600e-02  2.5765447474090132e-02  1.6981935312563045e-02  7.6594470323737476e-03  -2.0342071642636250e-03  -1.1916959515204679e-02  -2.1799478310627212e-02  -3.1492440816116622e-02  -4.0813805850831428e-02  -4.9595806378251173e-02  -5.7691393226852433e-02  -6.4979882152343932e-02  -7.1371587073645631e-02  -7.6811261287811280e-02  -8.1280214298739967e-02  -8.4797022817615433e-02  -8.7416808542417290e-02  -8.9229110399059272e-02  -9.0354432872194995e-02  -9.0939602749008933e-02  -9.1152112066212335e-02  -9.1173663575266350e-02  6.4233386004911630e-02  6.4209477697198786e-02  6.3994632245122030e-02  6.3407096278729078e-02  6.2279351511663424e-02  6.0464566938631170e-02  5.7842253299023462e-02  5.4322903284778672e-02  4.9851439697210717e-02  4.4409339357921941e-02  3.8015351330870410e-02  3.0724781961354926e-02  2.2627374289636702e-02  1.3843863415108505e-02  4.5213402797522131e-03  -5.1723978575657116e-03  -1.5055293035410694e-02  -2.4938020474231680e-02  -3.4631261840594250e-02  -4.3952978263693064e-02  -5.2735403486161313e-02  -6.0831488287016906e-02  -6.8120548404052475e-02  -7.4512898796733229e-02  -7.9953296053130868e-02  -8.4423056557807602e-02  -8.7940768937681602e-02  -9.0561573324809380e-02  -9.2375035026979038e-02  -9.3501694141984726e-02  -9.4088423396120210e-02  -9.4302772077241637e-02  -9.4326512645930477e-02  6.1911450439387609e-02  6.1885106726707780e-02  6.1668347159831403e-02  6.1079333240323573e-02  5.9950471737928716e-02  5.8134865426925926e-02  5.5511966567133759e-02  5.1992216370502081e-02  4.7520492523126276e-02  4.2078232514271459e-02  3.5684151322138639e-02  2.8393525970731970e-02  2.0296074521671578e-02  1.1512511072960889e-02  2.1899092189380043e-03  -7.5039477794686046e-03  -1.7387012920469468e-02  -2.7269969692824247e-02  -3.6963505749838907e-02  -4.6285586423321680e-02  -5.5068448481019987e-02  -6.3165045282658969e-02  -7.0454695573856307e-02  -7.6847718764008921e-02  -8.2288878487535438e-02  -8.6759502049582923e-02  -9.0278194244234403e-02  -9.2900118043817245e-02  -9.4714869707398605e-02  -9.5843029818781053e-02  -9.6431522557748769e-02  -9.6647961183233211e-02  -9.6674196527266942e-02  6.0487295107291124e-02  6.0458301399202607e-02  6.0239443174935001e-02  5.9648791137201049e-02  5.8518673044397437e-02  5.6702122521927273e-02  5.4078531172083576e-02  5.0558287021134130e-02  4.6086221234144645e-02  4.0643730768063484e-02  3.4249495472680726e-02  2.6958762135679888e-02  1.8861223024952238e-02  1.0077570488521452e-02  7.5486005027035070e-04  -8.9391397699879627e-03  -1.8822393742085955e-02  -2.8705594551369479e-02  -3.8399436926201534e-02  -4.7721891686954031e-02  -5.6505200139356719e-02  -6.4602319982483059e-02  -7.1892574980528132e-02  -7.8286291247898501e-02  -8.3728241942866113e-02  -8.8199767958742015e-02  -9.1719493081679107e-02  -9.4342606092567061e-02  -9.6158737347435852e-02  -9.7288511356211360e-02  -9.7878907716446681e-02  -9.8097608495288008e-02  -9.8126549040562047e-02  6.0015479444600277e-02  5.9983726462501302e-02  5.9762675837103256e-02  5.9170304527379654e-02  5.8038859137963666e-02  5.6221302588054793e-02  5.3596964663974699e-02  5.0076179307806251e-02  4.5603730433713963e-02  4.0160973851157099e-02  3.3766553750676373e-02  2.6475686218107287e-02  1.8378037311366988e-02  9.5942772441338052e-03  2.7144309720823442e-04  -9.4227117340428667e-03  -1.9306164208593053e-02  -2.9189616683143235e-02  -3.8883771514394337e-02  -4.8206605661319908e-02  -5.6990365728553087e-02  -6.5088014635293373e-02  -7.2378882167862452e-02  -7.8773302268343157e-02  -8.4216058850900027e-02  -8.8688507724992288e-02  -9.2209293081160743e-02  -9.4833631005240837e-02  -9.6651187555149676e-02  -9.7782632944565614e-02  -9.8375004254289189e-02  -9.8596054879687228e-02  -9.8627807861786210e-02  6.0513971490374012e-02  6.0479459234264593e-02  6.0256216207736100e-02  5.9662125626022862e-02  5.8529352939994499e-02  5.6710790362646889e-02  5.4085705864330404e-02  5.0564379302942969e-02  4.6091547341747870e-02  4.0648524642715303e-02  3.4253919737136609e-02  2.6962918008999269e-02  1.8865159306246326e-02  1.0081291708210739e-02  7.5833385261070202e-04  -8.9359759896331884e-03  -1.8819626966635569e-02  -2.8703331106452415e-02  -3.8397798394122551e-02  -4.7721011927221196e-02  -5.6505223609284845e-02  -6.4603401579639078e-02  -7.1894881646732162e-02  -7.8290005580323216e-02  -8.3733568050469359e-02  -8.8206939782777993e-02  -9.1728785372177796e-02  -9.4354348209450031e-02  -9.6173330054398889e-02  -9.7306446824455287e-02  -9.7900793083667087e-02  -9.8124193555621853e-02  -9.8158758974545735e-02  6.1963450902589839e-02  6.1926288651071720e-02  6.1700946967152018e-02  6.1105218267212651e-02  5.9971188990775526e-02  5.8151682201960542e-02  5.5525905213592540e-02  5.2004084697887337e-02  4.7530910797078552e-02  4.2087657640819634e-02  3.5692898631991002e-02  2.8401788918259497e-02  2.0303942553839285e-02  1.1519985868083607e-02  2.1969194282553495e-03  -7.4975332358402473e-03  -1.7381373043939760e-02  -2.7265321220685347e-02  -3.6960094826172879e-02  -4.6283682446541241e-02  -5.5068340523309292e-02  -6.3167041535150889e-02  -7.0459126309091680e-02  -7.6854943319900462e-02  -8.2299296761487700e-02  -8.6773570947624792e-02  -9.0296449465310180e-02  -9.2923201513887457e-02  -9.4743562950123802e-02  -9.5878293617573274e-02  -9.6474543498052734e-02  -9.6700206123364385e-02  -9.6737476743528575e-02  6.4308044945554824e-02  6.4268447289069719e-02  6.4041191490350383e-02  6.3443984837296172e-02  6.2308838825529872e-02  6.0488510298744372e-02  5.7862148090191884e-02  5.4339927392099779e-02  4.9866493231483150e-02  4.4423080405658177e-02  3.8028228231748257e-02  3.0737062536125580e-02  2.2639172394363194e-02  1.3855163134425025e-02  4.5320179759301684e-03  -5.1625535492541147e-03  -1.5046563320509514e-02  -2.4930740830788896e-02  -3.4625809126928510e-02  -4.3949760997680824e-02  -5.2734855909678940e-02  -6.0834068922303919e-02  -6.8126743870406459e-02  -7.4523233678687142e-02  -7.9968349587403287e-02  -8.4443486830911088e-02  -8.7967345163373900e-02  -9.0595216624406227e-02  -9.2416868022054344e-02  -9.3553099685880603e-02  -9.4151113051192281e-02  -9.4378865620866934e-02  -9.4418631016376028e-02  6.7457468699799517e-02  6.7415747800174092e-02  6.7186847557729357e-02  6.6588398060570597e-02  6.5452341388981733e-02  6.3631372077295162e-02  6.1004583398413734e-02  5.7482101405084148e-02  5.3008527996802716e-02  4.7565060374829049e-02  4.1170205295301139e-02  3.3879060600131371e-02  2.5781191566741232e-02  1.6997183593801955e-02  7.6740035801401048e-03  -2.0206518857247297e-03  -1.1904804483884054e-02  -2.1789190637561896e-02  -3.1484537794574677e-02  -4.0808841053710992e-02  -4.9594360660757605e-02  -5.7694071625636931e-02  -6.4987317765283562e-02  -7.1384453044943300e-02  -7.6830291995891378e-02  -8.1306236733147241e-02  -8.4830998926608628e-02  -8.7459889049966918e-02  -8.9282700293142656e-02  -9.0420268598838852e-02  -9.1019841341472063e-02  -9.1249433275064754e-02  -9.1291387730208701e-02  7.1290486700624905e-02  7.1247041171291617e-02  7.1016843355989678e-02  7.0417455539075663e-02  6.9280756592531301e-02  6.7459383009362481e-02  6.4832375749488275e-02  6.1309814475589405e-02  5.6836260427842816e-02  5.1392875444123229e-02  4.4998135702900406e-02  3.7707112788679206e-02  2.9609349678668420e-02  2.0825413174701969e-02  1.1502255112720379e-02  1.8075604272929542e-03  -8.0767009312471862e-03  -1.7961270637207972e-02  -2.7656878515278871e-02  -3.6981519521645592e-02  -4.5767451733017772e-02  -5.3867646619538509e-02  -6.1161443927566297e-02  -6.7559194061494299e-02  -7.3005709749114217e-02  -7.7482394500761151e-02  -8.1007966167365164e-02  -8.3637747821045993e-02  -8.5461553180724723e-02  -8.6600247834674793e-02  -8.7201118595973931e-02  -8.7432229603919359e-02  -8.7475983480673300e-02  7.5659562235896066e-02  7.5614863264771098e-02  7.5383782551228934e-02  7.4783824147211062e-02  7.3646809351904818e-02  7.1825320323656378e-02  6.9198348762191497e-02  6.5675930881710948e-02  6.1202590166083731e-02  5.5759455832689188e-02  4.9364975931102076e-02  4.2074197878537827e-02  3.3976644103750772e-02  2.5192864313617107e-02  1.5869796664113353e-02  6.1751158498166547e-03  -3.7092149514972878e-03  -1.3593940741752453e-02  -2.3289791343669312e-02  -3.2614758625189949e-02  -4.1401094889944152e-02  -4.9501763738069395e-02  -5.6796095752168062e-02  -6.3194431926737141e-02  -6.8641576650153080e-02  -7.3118927755801741e-02  -7.6645201909264216e-02  -7.9275727432263493e-02  -8.1100331533850142e-02  -8.2239902803776896e-02  -8.2841760839811651e-02  -8.3074011340974002e-02  -8.3119105301040178e-02  8.0396514503287275e-02  8.0351090141694254e-02  8.0119599436943897e-02  7.9519495751267946e-02  7.8382545868053155e-02  7.6561279481320965e-02  7.3934641346147564e-02  7.0412627289380844e-02  6.5939726497952919e-02  6.0497038955849444e-02  5.4102987562518065e-02  4.6812598000773552e-02  3.8715374068012370e-02  2.9931849916535486e-02  2.0608951380299268e-02  1.0914344300384047e-02  1.0299867015193687e-03  -8.8548677070106104e-03  -1.8550946123804906e-02  -2.7876233981482836e-02  -3.6662973618681031e-02  -4.4764115632130105e-02  -5.2058975299885540e-02  -5.8457877040883732e-02  -6.3905608776169187e-02  -6.8383553760779092e-02  -7.1910418165212583e-02  -7.4541526406396899e-02  -7.6366710873816981e-02  -7.7506876242753070e-02  -7.8109369249870719e-02  -7.8342331291500172e-02  -7.8388252462758490e-02  8.5318964315514084e-02  8.5273383361774757e-02  8.5042006262558006e-02  8.4442237116470351e-02  8.3305785370525118e-02  8.1485126656554621e-02  7.8859160062907663e-02  7.5337844557087169e-02  7.0865639515332202e-02  6.5423620055612794e-02  5.9030187573557907e-02  5.1740348763153837e-02  4.3643590733795881e-02  3.4860433467819862e-02  2.5537791599137744e-02  1.5843323269900903e-02  5.9589828075004084e-03  -3.9259753774062867e-03  -1.3622273135432239e-02  -2.2947885835263970e-02  -3.1735041167375064e-02  -3.9836670854414