<?xml version="1.0"?>
<VTKFile type="UnstructuredGrid"  version="0.1"  >
<UnstructuredGrid>
<Piece  NumberOfPoints="81" NumberOfCells="128">
<Points>
<DataArray  type="Float64"  NumberOfComponents="3"  format="ascii">0 0 0  0.125 0 0  0.25 0 0  0.375 0 0  0.5 0 0  0.625 0 0  0.75 0 0  0.875 0 0  1 0 0  0 0.125 0  0.125 0.125 0  0.25 0.125 0  0.375 0.125 0  0.5 0.125 0  0.625 0.125 0  0.75 0.125 0  0.875 0.125 0  1 0.125 0  0 0.25 0  0.125 0.25 0  0.25 0.25 0  0.375 0.25 0  0.5 0.25 0  0.625 0.25 0  0.75 0.25 0  0.875 0.25 0  1 0.25 0  0 0.375 0  0.125 0.375 0  0.25 0.375 0  0.375 0.375 0  0.5 0.375 0  0.625 0.375 0  0.75 0.375 0  0.875 0.375 0  1 0.375 0  0 0.5 0  0.125 0.5 0  0.25 0.5 0  0.375 0.5 0  0.5 0.5 0  0.625 0.5 0  0.75 0.5 0  0.875 0.5 0  1 0.5 0  0 0.625 0  0.125 0.625 0  0.25 0.625 0  0.375 0.625 0  0.5 0.625 0  0.625 0.625 0  0.75 0.625 0  0.875 0.625 0  1 0.625 0  0 0.75 0  0.125 0.75 0  0.25 0.75 0  0.375 0.75 0  0.5 0.75 0  0.625 0.75 0  0.75 0.75 0  0.875 0.75 0  1 0.75 0  0 0.875 0  0.125 0.875 0  0.25 0.875 0  0.375 0.875 0  0.5 0.875 0  0.625 0.875 0  0.75 0.875 0  0.875 0.875 0  1 0.875 0  0 1 0  0.125 1 0  0.25 1 0  0.375 1 0  0.5 1 0  0.625 1 0  0.75 1 0  0.875 1 0  1 1 0  </DataArray>
</Points>
<Cells>
<DataArray  type="UInt32"  Name="connectivity"  format="ascii">0 1 10  0 9 10  1 2 11  1 10 11  2 3 12  2 11 12  3 4 13  3 12 13  4 5 14  4 13 14  5 6 15  5 14 15  6 7 16  6 15 16  7 8 17  7 16 17  9 10 19  9 18 19  10 11 20  10 19 20  11 12 21  11 20 21  12 13 22  12 21 22  13 14 23  13 22 23  14 15 24  14 23 24  15 16 25  15 24 25  16 17 26  16 25 26  18 19 28  18 27 28  19 20 29  19 28 29  20 21 30  20 29 30  21 22 31  21 30 31  22 23 32  22 31 32  23 24 33  23 32 33  24 25 34  24 33 34  25 26 35  25 34 35  27 28 37  27 36 37  28 29 38  28 37 38  29 30 39  29 38 39  30 31 40  30 39 40  31 32 41  31 40 41  32 33 42  32 41 42  33 34 43  33 42 43  34 35 44  34 43 44  36 37 46  36 45 46  37 38 47  37 46 47  38 39 48  38 47 48  39 40 49  39 48 49  40 41 50  40 49 50  41 42 51  41 50 51  42 43 52  42 51 52  43 44 53  43 52 53  45 46 55  45 54 55  46 47 56  46 55 56  47 48 57  47 56 57  48 49 58  48 57 58  49 50 59  49 58 59  50 51 60  50 59 60  51 52 61  51 60 61  52 53 62  52 61 62  54 55 64  54 63 64  55 56 65  55 64 65  56 57 66  56 65 66  57 58 67  57 66 67  58 59 68  58 67 68  59 60 69  59 68 69  60 61 70  60 69 70  61 62 71  61 70 71  63 64 73  63 72 73  64 65 74  64 73 74  65 66 75  65 74 75  66 67 76  66 75 76  67 68 77  67 76 77  68 69 78  68 77 78  69 70 79  69 78 79  70 71 80  70 79 80  </DataArray>
<DataArray  type="UInt32"  Name="offsets"  format="ascii">3 6 9 12 15 18 21 24 27 30 33 36 39 42 45 48 51 54 57 60 63 66 69 72 75 78 81 84 87 90 93 96 99 102 105 108 111 114 117 120 123 126 129 132 135 138 141 144 147 150 153 156 159 162 165 168 171 174 177 180 183 186 189 192 195 198 201 204 207 210 213 216 219 222 225 228 231 234 237 240 243 246 249 252 255 258 261 264 267 270 273 276 279 282 285 288 291 294 297 300 303 306 309 312 315 318 321 324 327 330 333 336 339 342 345 348 351 354 357 360 363 366 369 372 375 378 381 384 </DataArray>
<DataArray  type="UInt8"  Name="types"  format="ascii">5 5 5 5 5 5 5 5 5 5 5 5 5 5 5 5 5 5 5 5 5 5 5 5 5 5 5 5 5 5 5 5 5 5 5 5 5 5 5 5 5 5 5 5 5 5 5 5 5 5 5 5 5 5 5 5 5 5 5 5 5 5 5 5 5 5 5 5 5 5 5 5 5 5 5 5 5 5 5 5 5 5 5 5 5 5 5 5 5 5 5 5 5 5 5 5 5 5 5 5 5 5 5 5 5 5 5 5 5 5 5 5 5 5 5 5 5 5 5 5 5 5 5 5 5 5 5 5 </DataArray>
</Cells>
<PointData  Scalars="u"> 
<DataArray  type="Float64"  Name="u"  format="ascii">1.1644652412535661e-01  1.1344379900510351e-01  1.0067944894045167e-01  7.3982990959982967e-02  3.7819160363919892e-02  2.3101553103470011e-03  -2.2805413964453597e-02  -3.3988875323437306e-02  -3.6336774901200214e-02  1.0741456085092314e-01  1.0563888141594965e-01  9.3545988413013537e-02  6.7333030539760239e-02  3.1362702304671475e-02  -4.3003470030325147e-03  -2.9771467922362044e-02  -4.1122523971374406e-02  -4.2590924478963121e-02  8.9583329657063518e-02  8.8211452786705405e-02  7.6463215966519449e-02  5.0500715873319939e-02  1.4629103014011772e-02  -2.1102777704786500e-02  -4.6727934569267611e-02  -5.8138828160735165e-02  -5.9370972890583379e-02  7.2654428294580117e-02  7.1190521803262463e-02  5.9495192307692304e-02  3.3607651668961708e-02  -2.2442284171578404e-03  -3.8042069956831091e-02  -6.3799150003840122e-02  -7.5364018907688721e-02  -7.6773886852560105e-02  6.6242437733411971e-02  6.4401013824072012e-02  5.2589727610705531e-02  2.6678926911992435e-02  -9.2017360907472034e-03  -4.5082399093486845e-02  -7.0993199792199937e-02  -8.2804486005566447e-02  -8.4645909914906406e-02  7.3929961657590415e-02  7.1711020330228151e-02  5.9783777399065346e-02  3.3849716640369752e-02  -2.0597292789899723e-03  -3.8023213744795996e-02  -6.4087735095213164e-02  -7.6145438618097555e-02  -7.8418418491906117e-02  9.1040299388506690e-02  8.8729328440184857e-02  7.6854992833637864e-02  5.0995891529411197e-02  1.5106178383240083e-02  -2.0923266903440919e-02  -4.7119711436386019e-02  -5.9331390271651456e-02  -6.1782093360483174e-02  1.0724830728804673e-01  1.0534113890434028e-01  9.3811459480543424e-02  6.8202815956370538e-02  3.2411818185980039e-02  -3.6864585117952261e-03  -3.0036938989891886e-02  -4.2308455367612532e-02  -4.4522902678703763e-02  1.1231585849895986e-01  1.1163573580053301e-01  1.0077751343845187e-01  7.5652370021494414e-02  4.0054874612078233e-02  3.8025536601718592e-03  -2.2903478462453740e-02  -3.5342589530203035e-02  -3.6677537771120067e-02  </DataArray> 
</PointData> 
</Piece>
</UnstructuredGrid>
</VTKFile>