<?xml version="1.0"?>
<VTKFile type="UnstructuredGrid"  version="0.1"  >
<UnstructuredGrid>
<Piece  NumberOfPoints="16" NumberOfCells="18">
<Points>
<DataArray  type="Float64"  NumberOfComponents="3"  format="ascii">0 0 0  0.3333333333333333 0 0  0.6666666666666666 0 0  1 0 0  0 0.3333333333333333 0  0.3333333333333333 0.3333333333333333 0  0.6666666666666666 0.3333333333333333 0  1 0.3333333333333333 0  0 0.6666666666666666 0  0.3333333333333333 0.6666666666666666 0  0.6666666666666666 0.6666666666666666 0  1 0.6666666666666666 0  0 1 0  0.3333333333333333 1 0  0.6666666666666666 1 0  1 1 0  </DataArray>
</Points>
<Cells>
<DataArray  type="UInt32"  Name="connectivity"  format="ascii">0 1 5  0 4 5  1 2 6  1 5 6  2 3 7  2 6 7  4 5 9  4 8 9  5 6 10  5 9 10  6 7 11  6 10 11  8 9 13  8 12 13  9 10 14  9 13 14  10 11 15  10 14 15  </DataArray>
<DataArray  type="UInt32"  Name="offsets"  format="ascii">3 6 9 12 15 18 21 24 27 30 33 36 39 42 45 48 51 54 </DataArray>
<DataArray  type="UInt8"  Name="types"  format="ascii">5 5 5 5 5 5 5 5 5 5 5 5 5 5 5 5 5 5 </DataArray>
</Cells>
<PointData  Scalars="u"> 
<DataArray  type="Float64"  Name="u"  format="ascii">1.1408176768596220e-01  9.1963421164782150e-02  2.7813391254823717e-02  1.6004870969172687e-02  7.9736445583500390e-02  6.5154600734531526e-02  1.9304967504990302e-03  -1.0933043725881685e-02  8.4146464890663811e-02  6.6653294784653469e-02  1.5773389487691303e-03  -1.7634135529829398e-02  1.0535669834375758e-01  9.5400029909958411e-02  3.1250000000000000e-02  1.0983505330671786e-02  </DataArray> 
</PointData> 
</Piece>
</UnstructuredGrid>
</VTKFile>