<?xml version="1.0"?>
<VTKFile type="UnstructuredGrid"  version="0.1"  >
<UnstructuredGrid>
<Piece  NumberOfPoints="137" NumberOfCells="232">
<Points>
<DataArray  type="Float64"  NumberOfComponents="3"  format="ascii">0 0 0  1 0 0  0 1 0  1 0.5 0  0.5 0.5 0  0.5 1 0  0.1 0 0  0.2 0 0  0.3 0 0  0.4 0 0  0.5 0 0  0.6 0 0  0.7 0 0  0.8 0 0  0.9 0 0  0 0.9 0  0 0.8 0  0 0.7 0  0 0.6 0  0 0.5 0  0 0.4 0  0 0.3 0  0 0.2 0  0 0.1 0  0.9 0.5 0  0.8 0.5 0  0.7 0.5 0  0.6 0.5 0  0.5 0.6 0  0.5 0.7 0  0.5 0.8 0  0.5 0.9 0  0.1 1 0  0.2 1 0  0.3 1 0  0.4 1 0  1 0.1 0  1 0.2 0  1 0.3 0  1 0.4 0  0.300178 0.296564 0  0.247566 0.664879 0  0.639694 0.259804 0  0.06564 0.06472 0  0.04439 0.954144 0  0.932418 0.06471499999999999 0  0.951013 0.456419 0  0.437622 0.939659 0  0.195334 0.464441 0  0.483382 0.329596 0  0.834786 0.236295 0  0.307228 0.8113899999999999 0  0.178229 0.173372 0  0.366998 0.134199 0  0.547485 0.14214 0  0.124832 0.74927 0  0.160163 0.896658 0  0.342556 0.535243 0  0.147651 0.342018 0  0.729803 0.127878 0  0.725981 0.357775 0  0.121369 0.600441 0  0.372954 0.70814 0  0.9085029999999999 0.151525 0  0.89851 0.333305 0  0.556275 0.400898 0  0.259184 0.092178 0  0.46329 0.194362 0  0.423773 0.869712 0  0.22823 0.8181619999999999 0  0.081292 0.144905 0  0.082979 0.831935 0  0.549999 0.065419 0  0.371537 0.407588 0  0.642628 0.09786499999999999 0  0.459835 0.08659500000000001 0  0.108565 0.418567 0  0.273082 0.902112 0  0.256598 0.556659 0  0.11951 0.509541 0  0.234147 0.370527 0  0.097453 0.253261 0  0.6384379999999999 0.342389 0  0.554656 0.224779 0  0.373432 0.237603 0  0.339663 0.62579 0  0.27079 0.747786 0  0.733958 0.266592 0  0.928527 0.244458 0  0.853116 0.071497 0  0.818426 0.404817 0  0.280194 0.200604 0  0.417859 0.565185 0  0.147241 0.079056 0  0.389149 0.789957 0  0.42808 0.6546419999999999 0  0.343469 0.059202 0  0.08676499999999999 0.684153 0  0.162043 0.675011 0  0.809252 0.14201 0  0.364337 0.928607 0  0.077532 0.916553 0  0.159064 0.807906 0  0.302124 0.454032 0  0.205909 0.272176 0  0.449664 0.407415 0  0.6604100000000001 0.423241 0  0.562201 0.303789 0  0.802658 0.320211 0  0.614551 0.182931 0  0.390944 0.331035 0  0.687136 0.18846 0  0.070577 0.342498 0  0.7410870000000001 0.437361 0  0.176989 0.547528 0  0.710251 0.07409 0  0.192845 0.6085739999999999 0  0.171114 0.398277 0  0.058959 0.753084 0  0.904 0.425508 0  0.438039 0.730373 0  0.057223 0.475897 0  0.058502 0.552106 0  0.330493 0.750997 0  0.312295 0.6991309999999999 0  0.684882 0.307111 0  0.053312 0.627311 0  0.198798 0.743695 0  0.392326 0.069953 0  0.351519 0.860283 0  0.397134 0.477694 0  0.319385 0.371198 0  0.767351 0.069505 0  0.441954 0.271171 0  0.759504 0.192785 0  0.855661 0.457701 0  0.500847 0.264652 0  </DataArray>
</Points>
<Cells>
<DataArray  type="UInt32"  Name="connectivity"  format="ascii">1 14 45  4 27 65  0 23 43  4 65 105  5 31 47  2 32 44  2 15 44  15 44 101  6 43 93  15 16 71  6 7 93  0 6 43  8 66 96  16 71 118  16 17 118  43 70 93  7 8 66  8 9 96  9 10 75  53 67 75  10 11 72  11 72 74  24 46 119  17 97 126  17 18 126  40 80 131  4 28 92  28 92 95  29 95 120  29 30 120  32 33 56  24 119 135  3 39 46  12 74 115  25 90 113  12 115 132  3 24 46  25 26 113  18 19 122  61 79 122  30 31 68  20 76 112  37 63 88  26 27 106  20 21 112  21 22 81  33 34 77  34 35 100  1 36 45  13 14 89  42 87 111  37 38 88  35 47 100  5 35 47  40 84 91  40 91 104  41 78 116  36 45 63  42 82 125  38 39 64  41 86 124  47 68 100  49 107 136  22 23 70  36 37 63  52 81 104  42 83 107  54 67 83  32 56 101  51 77 129  41 98 127  32 44 101  48 76 79  48 78 103  4 105 130  23 43 70  14 45 89  11 12 74  39 64 119  50 63 99  48 79 114  55 102 127  31 47 68  57 78 85  50 64 88  59 74 111  39 46 119  50 87 108  67 84 133  49 65 107  53 66 91  9 96 128  58 80 104  54 83 109  51 69 77  51 94 123  61 97 98  33 56 77  52 66 93  52 70 81  55 71 102  56 69 102  74 109 111  54 72 75  57 85 92  49 65 105  12 13 132  54 72 74  54 67 75  10 72 75  48 80 117  58 81 112  68 94 129  56 69 77  73 110 131  61 98 116  19 20 121  78 114 116  80 103 131  58 76 117  40 80 104  22 70 81  50 99 134  60 82 106  67 133 136  65 82 107  53 67 84  73 105 110  28 29 95  41 78 85  62 85 124  51 69 86  60 90 108  60 87 125  50 63 88  38 64 88  63 89 99  45 63 89  60 106 113  50 64 108  52 66 91  53 84 91  57 92 130  62 94 120  7 66 93  52 70 93  30 68 94  41 85 124  62 85 95  85 92 95  53 66 96  53 75 128  61 122 126  55 97 118  69 86 127  55 97 98  59 111 134  59 99 132  77 100 129  34 77 100  56 71 101  15 71 101  41 86 127  56 71 102  57 78 103  48 80 103  58 81 104  52 91 104  73 103 130  4 92 130  27 65 106  65 82 106  42 82 107  67 83 136  60 87 108  64 90 108  54 74 109  42 83 109  40 84 110  49 105 110  50 87 134  42 109 111  58 76 112  21 81 112  60 90 113  26 106 113  48 78 114  61 79 114  59 74 115  13 89 132  41 98 116  61 114 116  48 76 117  58 80 117  55 71 118  17 97 118  64 90 119  24 25 135  30 94 120  62 95 120  20 76 121  76 79 121  79 121 122  19 121 122  51 86 123  62 94 123  86 123 124  62 123 124  60 82 125  42 87 125  61 97 126  18 122 126  55 98 127  69 102 127  9 75 128  53 96 128  51 94 129  68 100 129  57 103 130  73 105 130  73 103 131  40 110 131  89 99 132  59 115 132  84 110 133  49 110 133  59 99 134  87 111 134  25 90 135  90 119 135  83 107 136  49 133 136  </DataArray>
<DataArray  type="UInt32"  Name="offsets"  format="ascii">3 6 9 12 15 18 21 24 27 30 33 36 39 42 45 48 51 54 57 60 63 66 69 72 75 78 81 84 87 90 93 96 99 102 105 108 111 114 117 120 123 126 129 132 135 138 141 144 147 150 153 156 159 162 165 168 171 174 177 180 183 186 189 192 195 198 201 204 207 210 213 216 219 222 225 228 231 234 237 240 243 246 249 252 255 258 261 264 267 270 273 276 279 282 285 288 291 294 297 300 303 306 309 312 315 318 321 324 327 330 333 336 339 342 345 348 351 354 357 360 363 366 369 372 375 378 381 384 387 390 393 396 399 402 405 408 411 414 417 420 423 426 429 432 435 438 441 444 447 450 453 456 459 462 465 468 471 474 477 480 483 486 489 492 495 498 501 504 507 510 513 516 519 522 525 528 531 534 537 540 543 546 549 552 555 558 561 564 567 570 573 576 579 582 585 588 591 594 597 600 603 606 609 612 615 618 621 624 627 630 633 636 639 642 645 648 651 654 657 660 663 666 669 672 675 678 681 684 687 690 693 696 </DataArray>
<DataArray  type="UInt8"  Name="types"  format="ascii">5 5 5 5 5 5 5 5 5 5 5 5 5 5 5 5 5 5 5 5 5 5 5 5 5 5 5 5 5 5 5 5 5 5 5 5 5 5 5 5 5 5 5 5 5 5 5 5 5 5 5 5 5 5 5 5 5 5 5 5 5 5 5 5 5 5 5 5 5 5 5 5 5 5 5 5 5 5 5 5 5 5 5 5 5 5 5 5 5 5 5 5 5 5 5 5 5 5 5 5 5 5 5 5 5 5 5 5 5 5 5 5 5 5 5 5 5 5 5 5 5 5 5 5 5 5 5 5 5 5 5 5 5 5 5 5 5 5 5 5 5 5 5 5 5 5 5 5 5 5 5 5 5 5 5 5 5 5 5 5 5 5 5 5 5 5 5 5 5 5 5 5 5 5 5 5 5 5 5 5 5 5 5 5 5 5 5 5 5 5 5 5 5 5 5 5 5 5 5 5 5 5 5 5 5 5 5 5 5 5 5 5 5 5 5 5 5 5 5 5 5 5 5 5 5 5 5 5 5 5 5 5 </DataArray>
</Cells>
<PointData  Scalars="f_13291"> 
<DataArray  type="Float64"  Name="f_13291"  format="ascii">4.7869215078841132e-01  0.0000000000000000e+00  9.3203908596722662e-01  0.0000000000000000e+00  4.4833142448072988e-01  9.3203908596722662e-01  4.7829204824815597e-01  4.6424544403885626e-01  4.3586564097815494e-01  3.9502921836835064e-01  3.4118475938955123e-01  2.7994848839122449e-01  2.1179839842827144e-01  1.4249775682243282e-01  7.1470281986953682e-02  8.6198254839089261e-01  7.9220904050319707e-01  7.2515788518186286e-01  6.6121279848102765e-01  6.0357302854893580e-01  5.5548648737205220e-01  5.1752550341811054e-01  4.9202453302432758e-01  4.7900227028055392e-01  7.1657678183869603e-02  1.4372999063696928e-01  2.1761059905231553e-01  2.7334239269230864e-01  6.2998204662175739e-01  7.0764530164546935e-01  7.8460773709191045e-01  8.5914134905242234e-01  9.3203908596722662e-01  9.3203908596722662e-01  9.3203908596722662e-01  9.3203908596722662e-01  0.0000000000000000e+00  0.0000000000000000e+00  0.0000000000000000e+00  0.0000000000000000e+00  4.7358484138548967e-01  6.9358021812399895e-01  2.5868109203659873e-01  4.7867070463183964e-01  8.9982303904678207e-01  4.8267298895978306e-02  3.5246318764350790e-02  8.8788251942518492e-01  5.7483989897975740e-01  3.8463918226356758e-01  1.1825320007762256e-01  7.9553558223252074e-01  4.7716492917669295e-01  4.1293410335505237e-01  3.1448532158973685e-01  7.5735022229441740e-01  8.5908311557452011e-01  5.8382101412034848e-01  5.2675953105278128e-01  1.9156164025372255e-01  1.9787283991200788e-01  6.6038593353294672e-01  7.1597847414530547e-01  6.5316309667925510e-02  7.2885928214953377e-02  3.2730838359598557e-01  4.4926678540143944e-01  3.7044999940516371e-01  8.3654160257268206e-01  8.0254869719110844e-01  4.8386588493823252e-01  8.1456196004702319e-01  3.1069955609865141e-01  4.8732252327648345e-01  2.5089404319502123e-01  3.6335592422650204e-01  5.6268716551085618e-01  8.6175707799347023e-01  6.1837734930870913e-01  6.0740134345481123e-01  5.2139293528704533e-01  5.0393625929853503e-01  2.6352398542834321e-01  3.1627172486296906e-01  4.2569143351004818e-01  6.5533658980087983e-01  7.5079493064833969e-01  1.9106949504080079e-01  5.1205310678000333e-02  1.0464313071923080e-01  1.3086974332050197e-01  4.5577284174310723e-01  5.9249686403256097e-01  4.7279317440440305e-01  7.7746302326449157e-01  6.6926068495943403e-01  4.1858432761259368e-01  7.1485845567559703e-01  7.0626797363109650e-01  1.3585498486295264e-01  8.8013139380781569e-01  8.7341500211561263e-01  7.9699683877278560e-01  5.4369157907327659e-01  4.9369551666112083e-01  4.3340520496214746e-01  2.4918181645159534e-01  3.1985635043214811e-01  1.4197008654148291e-01  2.7244876903953053e-01  4.4380907155254540e-01  2.2241375228368579e-01  5.3285150539475989e-01  1.8641960868111143e-01  6.2414174249247023e-01  2.0506416325705937e-01  6.6073886165337858e-01  5.4645822844220449e-01  7.6097714041969500e-01  6.8929352010812753e-02  7.3136424113726051e-01  5.9213795741735986e-01  6.3369732640396825e-01  7.5034665005464929e-01  7.1311267332533479e-01  2.2771257322544083e-01  6.7887188364592388e-01  7.5125814363662091e-01  3.9681787231135468e-01  8.3036884506383823e-01  5.2057977684087597e-01  4.9422114890635388e-01  1.6504797576755142e-01  3.9610313524407847e-01  1.7152917838792470e-01  1.0354535271786318e-01  3.5696167157641595e-01  </DataArray> 
</PointData> 
</Piece>
</UnstructuredGrid>
</VTKFile>